LAMMPS (2 Aug 2023 - Update 1)
  using 1 OpenMP thread(s) per MPI task
Loaded 1 plugins from /data/home/scv8373/run/tools/deepmd-kit-2.2.6/lib/deepmd_lmp
#
#<1> LAMMPS input variables
variable  dir_4_ftmp  string "operation_center.tmp_files"
variable  dir_addinfo string "operation_center.add_info"
variable  dir_delinfo string "operation_center.del_info"

variable  dp_file_name string "frozen_model.pb"
variable  data_filename string "small_band.data"

variable  outfilename string "ann.lammpstrj"
variable  mainloop_time  equal 20
variable  run_time_at_each_loop equal 4000
variable  dump_freq equal 100
#<1.end>


#<2> LAMMPS 字头
units           metal
boundary        p p p

atom_style      atomic

read_data      ${data_filename}
read_data      small_band.data
Reading data file ...
  orthogonal box = (0 0 0) to (34.0867 19.68 60)
  1 by 1 by 1 MPI processor grid
  reading atoms ...
  1024 atoms
  read_data CPU = 0.009 seconds
mass 1 107.868200 # Ag
mass 2 26.981539 # Al
mass 3 1 # As
mass 4 196.96654 # Au
mass 5 10.811 # B
mass 6 208.98038 # Bi
mass 7 12.0100 # C
mass 8 40.078 # Ca
mass 9 112.4 # Cd
mass 10 35.4532000 # Cl
mass 11 58.93300 # Co
mass 12 51.996 # Cr
mass 13 1 # Cs
mass 14 63.546000 # Cu
mass 15 55.845000 # Fe
mass 16 1 # Ga
mass 17 1 # Ge
mass 18 1.00794 # H
mass 19 1 # Hf
mass 20 1 # Hg
mass 21 1 # In
mass 22 192.2170000 # Ir
mass 23 39.0983 # K
mass 24 24.3050 # Mg
mass 25 54.938 # Mn
mass 26 95.9400 # Mo
mass 27 14.0067 # N
mass 28 22.989770 # Na
mass 29 92.90638 # Nb
mass 30 58.690000 # Ni
mass 31 15.9994 # O
mass 32 1 # Os
mass 33 30.973762 # P
mass 34 1 # Pb
mass 35 106.420000 # Pd
mass 36 195.07800 # Pt
mass 37 1 # Rb
mass 38 186.207 # Re
mass 39 102.90550 # Rh
mass 40 101.0700 # Ru
mass 41 32.06500 # S
mass 42 121.76 # Sb
mass 43 1 # Sc
mass 44 78.9600 # Se
mass 45 1 # Si
mass 46 118.71 # Sn
mass 47 1 # Sr
mass 48 1 # Ta
mass 49 1 # Tc
mass 50 1 # Te
mass 51 47.867 # Ti
mass 52 1 # Tl
mass 53 50.9414 # V
mass 54 183.8400 # W
mass 55 88.905 # Y
mass 56 65.409 # Zn
mass 57 1 # Zr


pair_style      deepmd ${dp_file_name}
pair_style      deepmd frozen_model.pb
Summary of lammps deepmd module ...
  >>> Info of deepmd-kit:
  installed to:       /data/home/scv8373/run/tools/deepmd-kit-2.2.6
  source:             v2.2.7
  source branch:       HEAD
  source commit:      839f4fe7
  source commit at:   2023-10-27 21:10:24 +0800
  surpport model ver.:1.1 
  build variant:      cuda
  build with tf inc:  /data/home/scv8373/run/tools/deepmd-kit-2.2.6/include;/data/home/scv8373/run/tools/deepmd-kit-2.2.6/include
  build with tf lib:  /data/home/scv8373/run/tools/deepmd-kit-2.2.6/lib/libtensorflow_cc.so
  set tf intra_op_parallelism_threads: 0
  set tf inter_op_parallelism_threads: 0
  >>> Info of lammps module:
  use deepmd-kit at:  /data/home/scv8373/run/tools/deepmd-kit-2.2.6pair_coeff      * *
neighbor        2.0 bin
neigh_modify    every 10 delay 0 check no

velocity        all create 300.0 4928459 rot yes dist gaussian
fix             1 all nvt temp 300.0 300.0 0.1

thermo          10
dump            1 all custom ${dump_freq} ${outfilename} id type x y z
dump            1 all custom 100 ${outfilename} id type x y z
dump            1 all custom 100 ann.lammpstrj id type x y z
compute         ae0 all pe/atom
dump            2 all custom ${dump_freq} ae.${outfilename} id type c_ae0
dump            2 all custom 100 ae.${outfilename} id type c_ae0
dump            2 all custom 100 ae.ann.lammpstrj id type c_ae0

timestep        0.001  # 0.001 means 1fs
run             0

CITE-CITE-CITE-CITE-CITE-CITE-CITE-CITE-CITE-CITE-CITE-CITE-CITE

Your simulation uses code contributions which should be cited:

- USER-DEEPMD package:

@article{Wang_ComputPhysCommun_2018_v228_p178,
  author = {Wang, Han and Zhang, Linfeng and Han, Jiequn and E, Weinan},
  doi = {10.1016/j.cpc.2018.03.016},
  url = {https://doi.org/10.1016/j.cpc.2018.03.016},
  year = 2018,
  month = {jul},
  publisher = {Elsevier {BV}},
  volume = 228,
  journal = {Comput. Phys. Commun.},
  title = {{DeePMD-kit: A deep learning package for many-body potential energy representation and molecular dynamics}},
  pages = {178--184}
}
@misc{Zeng_JChemPhys_2023_v159_p054801,
  title  = {{DeePMD-kit v2: A software package for deep potential models}},
  author =   {Jinzhe Zeng and Duo Zhang and Denghui Lu and Pinghui Mo and Zeyu Li
         and Yixiao Chen and Mari{\'a}n Rynik and Li'ang Huang and Ziyao Li and 
         Shaochen Shi and Yingze Wang and Haotian Ye and Ping Tuo and Jiabin
         Yang and Ye Ding and Yifan Li and Davide Tisi and Qiyu Zeng and Han 
         Bao and Yu Xia and Jiameng Huang and Koki Muraoka and Yibo Wang and 
         Junhan Chang and Fengbo Yuan and Sigbj{\o}rn L{\o}land Bore and Chun
         Cai and Yinnian Lin and Bo Wang and Jiayan Xu and Jia-Xin Zhu and 
         Chenxing Luo and Yuzhi Zhang and Rhys E A Goodall and Wenshuo Liang
         and Anurag Kumar Singh and Sikai Yao and Jingchao Zhang and Renata
         Wentzcovitch and Jiequn Han and Jie Liu and Weile Jia and Darrin M
         York and Weinan E and Roberto Car and Linfeng Zhang and Han Wang},
  journal =  {J. Chem. Phys.},
  volume =   159,
  issue =    5,  
  year =    2023,
  pages  =   054801,
  doi =      {10.1063/5.0155600},
}

CITE-CITE-CITE-CITE-CITE-CITE-CITE-CITE-CITE-CITE-CITE-CITE-CITE

Generated 0 of 1596 mixed pair_coeff terms from geometric mixing rule
Neighbor list info ...
  update: every = 10 steps, delay = 0 steps, check = no
  max neighbors/atom: 2000, page size: 100000
  master list distance cutoff = 11
  ghost atom cutoff = 11
  binsize = 5.5, bins = 7 4 11
  1 neighbor lists, perpetual/occasional/extra = 1 0 0
  (1) pair deepmd, perpetual
      attributes: full, newton on
      pair build: full/bin/atomonly
      stencil: full/bin/3d
      bin: standard
Per MPI rank memory allocation (min/avg/max) = 4.336 | 4.336 | 4.336 Mbytes
   Step          Temp          E_pair         E_mol          TotEng         Press     
         0   300           -8381.3146      0             -8341.6447     -308.48613    
Loop time of 2.708e-06 on 1 procs for 0 steps with 1024 atoms

110.8% CPU use with 1 MPI tasks x 1 OpenMP threads

MPI task timing breakdown:
Section |  min time  |  avg time  |  max time  |%varavg| %total
---------------------------------------------------------------
Pair    | 0          | 0          | 0          |   0.0 |  0.00
Neigh   | 0          | 0          | 0          |   0.0 |  0.00
Comm    | 0          | 0          | 0          |   0.0 |  0.00
Output  | 0          | 0          | 0          |   0.0 |  0.00
Modify  | 0          | 0          | 0          |   0.0 |  0.00
Other   |            | 2.708e-06  |            |       |100.00

Nlocal:           1024 ave        1024 max        1024 min
Histogram: 1 0 0 0 0 0 0 0 0 0
Nghost:           2620 ave        2620 max        2620 min
Histogram: 1 0 0 0 0 0 0 0 0 0
Neighs:              0 ave           0 max           0 min
Histogram: 1 0 0 0 0 0 0 0 0 0
FullNghs:       410334 ave      410334 max      410334 min
Histogram: 1 0 0 0 0 0 0 0 0 0

Total # of neighbors = 410334
Ave neighs/atom = 400.7168
Neighbor list builds = 0
Dangerous builds not checked
#<2.end>
#<3>
#<3.loop(main)> 主程序
label       loopa
variable    a loop ${mainloop_time}
variable    a loop 20
  print  "#3.main.loop> time ${a}"
#3.main.loop> time 1
  print  "writing restart.equil"
writing restart.equil

  write_restart restart.equil
System init for write_restart ...
Generated 0 of 1596 mixed pair_coeff terms from geometric mixing rule

  #<3.1> 判断要增删哪些原子
  print    "  #3.1> judge which atoms to be add or del"  #${a} 是要增加的原子de loop数
  #3.1> judge which atoms to be add or del
  print    ""

  print    "  #3.1> ./scripts/adddel_conditions_2_adddel_files.py ${outfilename} "
  #3.1> ./scripts/adddel_conditions_2_adddel_files.py ann.lammpstrj 
    #<3.1.atom_transform> run ./scripts/atom_transform.sh ${outfilename}
    shell    ./scripts/adddel_conditions_2_adddel_files.py
    #shell   ./scripts/atom_transform.sh ${outfilename}  #atom_transform will create natm_to_add.txt and natm_to_del.txt
  print    ""

  print    "  #3.1.end>"
  #3.1.end>
  #<3.1.end>


  #<3.2> 增加原子的操作
  print    "  #3.2> add atoms"
  #3.2> add atoms
  print    ""

  print    "  #3.2> read natm_to_add from ${dir_addinfo}/natm_to_add.txt"
  #3.2> read natm_to_add from operation_center.add_info/natm_to_add.txt
  variable  natm_to_add file ./${dir_addinfo}/natm_to_add.txt
  variable  natm_to_add file ./operation_center.add_info/natm_to_add.txt
  print "  #3.2> : we will add ${natm_to_add} atoms into the system"
  #3.2> : we will add 7 atoms into the system

    #<3.2.if> 判断是否要增加原子
    if "${natm_to_add} > 0" then "jump SELF 3.2.if.cond_1" else "jump SELF 3.2.if.cond_else"
jump SELF 3.2.if.cond_1

        print  ""

        print  "      #3.2.if.cond1> : add these atoms"
      #3.2.if.cond1> : add these atoms
        print  ""


        #<3.2.if.cond1.loop> 增加原子loop
        #以下执行增加原子的操作.将所需增加的原子及其坐标放在${dir_addinfo}/eleidx_to_add_${index}.txt ${dir_addinfo}/[x,y,z]_to_add_${index}.txt
        #以下通过loop增加原子

        ##
        #variable   natm equal
        ##

        label    loop_4_adatom
          variable  index loop ${natm_to_add}
          variable  index loop 7

          variable  ele_idx file ${dir_addinfo}/eleidx_to_add_${index}.txt
          variable  ele_idx file operation_center.add_info/eleidx_to_add_${index}.txt
          variable  ele_idx file operation_center.add_info/eleidx_to_add_1.txt

          variable  x_cor_add file ${dir_addinfo}/x_to_add_${index}.txt
          variable  x_cor_add file operation_center.add_info/x_to_add_${index}.txt
          variable  x_cor_add file operation_center.add_info/x_to_add_1.txt
          variable  y_cor_add file ${dir_addinfo}/y_to_add_${index}.txt
          variable  y_cor_add file operation_center.add_info/y_to_add_${index}.txt
          variable  y_cor_add file operation_center.add_info/y_to_add_1.txt
          variable  z_cor_add file ${dir_addinfo}/z_to_add_${index}.txt
          variable  z_cor_add file operation_center.add_info/z_to_add_${index}.txt
          variable  z_cor_add file operation_center.add_info/z_to_add_1.txt

          create_atoms  ${ele_idx}  single ${x_cor_add} ${y_cor_add} ${z_cor_add}
          create_atoms  41  single ${x_cor_add} ${y_cor_add} ${z_cor_add}
          create_atoms  41  single 23.836 ${y_cor_add} ${z_cor_add}
          create_atoms  41  single 23.836 15.711 ${z_cor_add}
          create_atoms  41  single 23.836 15.711 51.381
Created 1 atoms
  using lattice units in orthogonal box = (0 0 0) to (34.0867 19.68 60)
  create_atoms CPU = 0.000 seconds

          ##<extension.velocity_set>
          #variable addatom_id equal count(all)
          #group id_new id ${addatom_id}

          #variable vx equal 200*(59.5116-${x_cor_add})
          #variable vy equal 200*(63.7752-${y_cor_add})
          #variable vz equal 200*(60.1321-${z_cor_add})
          #velocity id_new set ${vx} ${vy} ${vz}

          #if "${index} == 1" then "group newly_add_atom id ${addatom_id}" else "group newly_add_atom union newly_add_atom id_new"

          #group id_new delete
          #variable vx delete
          #variable vy delete
          #variable vz delete
          ##<extension.velocity_set.end>

          print ""

          print "        #3.2.if.cond1.loop> : add the ${index}th atom"
        #3.2.if.cond1.loop> : add the 1th atom
          print "        #3.2.if.cond1.loop>: ele_idx: ${ele_idx}     cordinates: ${x_cor_add} ${y_cor_add} ${z_cor_add}"
        #3.2.if.cond1.loop>: ele_idx: 41     cordinates: 23.836 15.711 51.381
          print ""


          variable  ele_idx delete

          variable  x_cor_add delete
          variable  y_cor_add delete
          variable  z_cor_add delete

          next    index
        jump SELF loop_4_adatom
          variable  index loop ${natm_to_add}
          variable  index loop 7

          variable  ele_idx file ${dir_addinfo}/eleidx_to_add_${index}.txt
          variable  ele_idx file operation_center.add_info/eleidx_to_add_${index}.txt
          variable  ele_idx file operation_center.add_info/eleidx_to_add_2.txt

          variable  x_cor_add file ${dir_addinfo}/x_to_add_${index}.txt
          variable  x_cor_add file operation_center.add_info/x_to_add_${index}.txt
          variable  x_cor_add file operation_center.add_info/x_to_add_2.txt
          variable  y_cor_add file ${dir_addinfo}/y_to_add_${index}.txt
          variable  y_cor_add file operation_center.add_info/y_to_add_${index}.txt
          variable  y_cor_add file operation_center.add_info/y_to_add_2.txt
          variable  z_cor_add file ${dir_addinfo}/z_to_add_${index}.txt
          variable  z_cor_add file operation_center.add_info/z_to_add_${index}.txt
          variable  z_cor_add file operation_center.add_info/z_to_add_2.txt

          create_atoms  ${ele_idx}  single ${x_cor_add} ${y_cor_add} ${z_cor_add}
          create_atoms  33  single ${x_cor_add} ${y_cor_add} ${z_cor_add}
          create_atoms  33  single 0.716 ${y_cor_add} ${z_cor_add}
          create_atoms  33  single 0.716 10.490 ${z_cor_add}
          create_atoms  33  single 0.716 10.490 4.756
Created 1 atoms
  using lattice units in orthogonal box = (0 0 0) to (34.0867 19.68 60)
  create_atoms CPU = 0.000 seconds

          ##<extension.velocity_set>
          #variable addatom_id equal count(all)
          #group id_new id ${addatom_id}

          #variable vx equal 200*(59.5116-${x_cor_add})
          #variable vy equal 200*(63.7752-${y_cor_add})
          #variable vz equal 200*(60.1321-${z_cor_add})
          #velocity id_new set ${vx} ${vy} ${vz}

          #if "${index} == 1" then "group newly_add_atom id ${addatom_id}" else "group newly_add_atom union newly_add_atom id_new"

          #group id_new delete
          #variable vx delete
          #variable vy delete
          #variable vz delete
          ##<extension.velocity_set.end>

          print ""

          print "        #3.2.if.cond1.loop> : add the ${index}th atom"
        #3.2.if.cond1.loop> : add the 2th atom
          print "        #3.2.if.cond1.loop>: ele_idx: ${ele_idx}     cordinates: ${x_cor_add} ${y_cor_add} ${z_cor_add}"
        #3.2.if.cond1.loop>: ele_idx: 33     cordinates: 0.716 10.490 4.756
          print ""


          variable  ele_idx delete

          variable  x_cor_add delete
          variable  y_cor_add delete
          variable  z_cor_add delete

          next    index
        jump SELF loop_4_adatom
          variable  index loop ${natm_to_add}
          variable  index loop 7

          variable  ele_idx file ${dir_addinfo}/eleidx_to_add_${index}.txt
          variable  ele_idx file operation_center.add_info/eleidx_to_add_${index}.txt
          variable  ele_idx file operation_center.add_info/eleidx_to_add_3.txt

          variable  x_cor_add file ${dir_addinfo}/x_to_add_${index}.txt
          variable  x_cor_add file operation_center.add_info/x_to_add_${index}.txt
          variable  x_cor_add file operation_center.add_info/x_to_add_3.txt
          variable  y_cor_add file ${dir_addinfo}/y_to_add_${index}.txt
          variable  y_cor_add file operation_center.add_info/y_to_add_${index}.txt
          variable  y_cor_add file operation_center.add_info/y_to_add_3.txt
          variable  z_cor_add file ${dir_addinfo}/z_to_add_${index}.txt
          variable  z_cor_add file operation_center.add_info/z_to_add_${index}.txt
          variable  z_cor_add file operation_center.add_info/z_to_add_3.txt

          create_atoms  ${ele_idx}  single ${x_cor_add} ${y_cor_add} ${z_cor_add}
          create_atoms  5  single ${x_cor_add} ${y_cor_add} ${z_cor_add}
          create_atoms  5  single 13.508 ${y_cor_add} ${z_cor_add}
          create_atoms  5  single 13.508 13.960 ${z_cor_add}
          create_atoms  5  single 13.508 13.960 46.767
Created 1 atoms
  using lattice units in orthogonal box = (0 0 0) to (34.0867 19.68 60)
  create_atoms CPU = 0.000 seconds

          ##<extension.velocity_set>
          #variable addatom_id equal count(all)
          #group id_new id ${addatom_id}

          #variable vx equal 200*(59.5116-${x_cor_add})
          #variable vy equal 200*(63.7752-${y_cor_add})
          #variable vz equal 200*(60.1321-${z_cor_add})
          #velocity id_new set ${vx} ${vy} ${vz}

          #if "${index} == 1" then "group newly_add_atom id ${addatom_id}" else "group newly_add_atom union newly_add_atom id_new"

          #group id_new delete
          #variable vx delete
          #variable vy delete
          #variable vz delete
          ##<extension.velocity_set.end>

          print ""

          print "        #3.2.if.cond1.loop> : add the ${index}th atom"
        #3.2.if.cond1.loop> : add the 3th atom
          print "        #3.2.if.cond1.loop>: ele_idx: ${ele_idx}     cordinates: ${x_cor_add} ${y_cor_add} ${z_cor_add}"
        #3.2.if.cond1.loop>: ele_idx: 5     cordinates: 13.508 13.960 46.767
          print ""


          variable  ele_idx delete

          variable  x_cor_add delete
          variable  y_cor_add delete
          variable  z_cor_add delete

          next    index
        jump SELF loop_4_adatom
          variable  index loop ${natm_to_add}
          variable  index loop 7

          variable  ele_idx file ${dir_addinfo}/eleidx_to_add_${index}.txt
          variable  ele_idx file operation_center.add_info/eleidx_to_add_${index}.txt
          variable  ele_idx file operation_center.add_info/eleidx_to_add_4.txt

          variable  x_cor_add file ${dir_addinfo}/x_to_add_${index}.txt
          variable  x_cor_add file operation_center.add_info/x_to_add_${index}.txt
          variable  x_cor_add file operation_center.add_info/x_to_add_4.txt
          variable  y_cor_add file ${dir_addinfo}/y_to_add_${index}.txt
          variable  y_cor_add file operation_center.add_info/y_to_add_${index}.txt
          variable  y_cor_add file operation_center.add_info/y_to_add_4.txt
          variable  z_cor_add file ${dir_addinfo}/z_to_add_${index}.txt
          variable  z_cor_add file operation_center.add_info/z_to_add_${index}.txt
          variable  z_cor_add file operation_center.add_info/z_to_add_4.txt

          create_atoms  ${ele_idx}  single ${x_cor_add} ${y_cor_add} ${z_cor_add}
          create_atoms  33  single ${x_cor_add} ${y_cor_add} ${z_cor_add}
          create_atoms  33  single 19.297 ${y_cor_add} ${z_cor_add}
          create_atoms  33  single 19.297 5.805 ${z_cor_add}
          create_atoms  33  single 19.297 5.805 13.805
Created 1 atoms
  using lattice units in orthogonal box = (0 0 0) to (34.0867 19.68 60)
  create_atoms CPU = 0.000 seconds

          ##<extension.velocity_set>
          #variable addatom_id equal count(all)
          #group id_new id ${addatom_id}

          #variable vx equal 200*(59.5116-${x_cor_add})
          #variable vy equal 200*(63.7752-${y_cor_add})
          #variable vz equal 200*(60.1321-${z_cor_add})
          #velocity id_new set ${vx} ${vy} ${vz}

          #if "${index} == 1" then "group newly_add_atom id ${addatom_id}" else "group newly_add_atom union newly_add_atom id_new"

          #group id_new delete
          #variable vx delete
          #variable vy delete
          #variable vz delete
          ##<extension.velocity_set.end>

          print ""

          print "        #3.2.if.cond1.loop> : add the ${index}th atom"
        #3.2.if.cond1.loop> : add the 4th atom
          print "        #3.2.if.cond1.loop>: ele_idx: ${ele_idx}     cordinates: ${x_cor_add} ${y_cor_add} ${z_cor_add}"
        #3.2.if.cond1.loop>: ele_idx: 33     cordinates: 19.297 5.805 13.805
          print ""


          variable  ele_idx delete

          variable  x_cor_add delete
          variable  y_cor_add delete
          variable  z_cor_add delete

          next    index
        jump SELF loop_4_adatom
          variable  index loop ${natm_to_add}
          variable  index loop 7

          variable  ele_idx file ${dir_addinfo}/eleidx_to_add_${index}.txt
          variable  ele_idx file operation_center.add_info/eleidx_to_add_${index}.txt
          variable  ele_idx file operation_center.add_info/eleidx_to_add_5.txt

          variable  x_cor_add file ${dir_addinfo}/x_to_add_${index}.txt
          variable  x_cor_add file operation_center.add_info/x_to_add_${index}.txt
          variable  x_cor_add file operation_center.add_info/x_to_add_5.txt
          variable  y_cor_add file ${dir_addinfo}/y_to_add_${index}.txt
          variable  y_cor_add file operation_center.add_info/y_to_add_${index}.txt
          variable  y_cor_add file operation_center.add_info/y_to_add_5.txt
          variable  z_cor_add file ${dir_addinfo}/z_to_add_${index}.txt
          variable  z_cor_add file operation_center.add_info/z_to_add_${index}.txt
          variable  z_cor_add file operation_center.add_info/z_to_add_5.txt

          create_atoms  ${ele_idx}  single ${x_cor_add} ${y_cor_add} ${z_cor_add}
          create_atoms  5  single ${x_cor_add} ${y_cor_add} ${z_cor_add}
          create_atoms  5  single 12.455 ${y_cor_add} ${z_cor_add}
          create_atoms  5  single 12.455 4.825 ${z_cor_add}
          create_atoms  5  single 12.455 4.825 26.835
Created 1 atoms
  using lattice units in orthogonal box = (0 0 0) to (34.0867 19.68 60)
  create_atoms CPU = 0.000 seconds

          ##<extension.velocity_set>
          #variable addatom_id equal count(all)
          #group id_new id ${addatom_id}

          #variable vx equal 200*(59.5116-${x_cor_add})
          #variable vy equal 200*(63.7752-${y_cor_add})
          #variable vz equal 200*(60.1321-${z_cor_add})
          #velocity id_new set ${vx} ${vy} ${vz}

          #if "${index} == 1" then "group newly_add_atom id ${addatom_id}" else "group newly_add_atom union newly_add_atom id_new"

          #group id_new delete
          #variable vx delete
          #variable vy delete
          #variable vz delete
          ##<extension.velocity_set.end>

          print ""

          print "        #3.2.if.cond1.loop> : add the ${index}th atom"
        #3.2.if.cond1.loop> : add the 5th atom
          print "        #3.2.if.cond1.loop>: ele_idx: ${ele_idx}     cordinates: ${x_cor_add} ${y_cor_add} ${z_cor_add}"
        #3.2.if.cond1.loop>: ele_idx: 5     cordinates: 12.455 4.825 26.835
          print ""


          variable  ele_idx delete

          variable  x_cor_add delete
          variable  y_cor_add delete
          variable  z_cor_add delete

          next    index
        jump SELF loop_4_adatom
          variable  index loop ${natm_to_add}
          variable  index loop 7

          variable  ele_idx file ${dir_addinfo}/eleidx_to_add_${index}.txt
          variable  ele_idx file operation_center.add_info/eleidx_to_add_${index}.txt
          variable  ele_idx file operation_center.add_info/eleidx_to_add_6.txt

          variable  x_cor_add file ${dir_addinfo}/x_to_add_${index}.txt
          variable  x_cor_add file operation_center.add_info/x_to_add_${index}.txt
          variable  x_cor_add file operation_center.add_info/x_to_add_6.txt
          variable  y_cor_add file ${dir_addinfo}/y_to_add_${index}.txt
          variable  y_cor_add file operation_center.add_info/y_to_add_${index}.txt
          variable  y_cor_add file operation_center.add_info/y_to_add_6.txt
          variable  z_cor_add file ${dir_addinfo}/z_to_add_${index}.txt
          variable  z_cor_add file operation_center.add_info/z_to_add_${index}.txt
          variable  z_cor_add file operation_center.add_info/z_to_add_6.txt

          create_atoms  ${ele_idx}  single ${x_cor_add} ${y_cor_add} ${z_cor_add}
          create_atoms  5  single ${x_cor_add} ${y_cor_add} ${z_cor_add}
          create_atoms  5  single 25.430 ${y_cor_add} ${z_cor_add}
          create_atoms  5  single 25.430 16.965 ${z_cor_add}
          create_atoms  5  single 25.430 16.965 22.743
Created 1 atoms
  using lattice units in orthogonal box = (0 0 0) to (34.0867 19.68 60)
  create_atoms CPU = 0.000 seconds

          ##<extension.velocity_set>
          #variable addatom_id equal count(all)
          #group id_new id ${addatom_id}

          #variable vx equal 200*(59.5116-${x_cor_add})
          #variable vy equal 200*(63.7752-${y_cor_add})
          #variable vz equal 200*(60.1321-${z_cor_add})
          #velocity id_new set ${vx} ${vy} ${vz}

          #if "${index} == 1" then "group newly_add_atom id ${addatom_id}" else "group newly_add_atom union newly_add_atom id_new"

          #group id_new delete
          #variable vx delete
          #variable vy delete
          #variable vz delete
          ##<extension.velocity_set.end>

          print ""

          print "        #3.2.if.cond1.loop> : add the ${index}th atom"
        #3.2.if.cond1.loop> : add the 6th atom
          print "        #3.2.if.cond1.loop>: ele_idx: ${ele_idx}     cordinates: ${x_cor_add} ${y_cor_add} ${z_cor_add}"
        #3.2.if.cond1.loop>: ele_idx: 5     cordinates: 25.430 16.965 22.743
          print ""


          variable  ele_idx delete

          variable  x_cor_add delete
          variable  y_cor_add delete
          variable  z_cor_add delete

          next    index
        jump SELF loop_4_adatom
          variable  index loop ${natm_to_add}
          variable  index loop 7

          variable  ele_idx file ${dir_addinfo}/eleidx_to_add_${index}.txt
          variable  ele_idx file operation_center.add_info/eleidx_to_add_${index}.txt
          variable  ele_idx file operation_center.add_info/eleidx_to_add_7.txt

          variable  x_cor_add file ${dir_addinfo}/x_to_add_${index}.txt
          variable  x_cor_add file operation_center.add_info/x_to_add_${index}.txt
          variable  x_cor_add file operation_center.add_info/x_to_add_7.txt
          variable  y_cor_add file ${dir_addinfo}/y_to_add_${index}.txt
          variable  y_cor_add file operation_center.add_info/y_to_add_${index}.txt
          variable  y_cor_add file operation_center.add_info/y_to_add_7.txt
          variable  z_cor_add file ${dir_addinfo}/z_to_add_${index}.txt
          variable  z_cor_add file operation_center.add_info/z_to_add_${index}.txt
          variable  z_cor_add file operation_center.add_info/z_to_add_7.txt

          create_atoms  ${ele_idx}  single ${x_cor_add} ${y_cor_add} ${z_cor_add}
          create_atoms  41  single ${x_cor_add} ${y_cor_add} ${z_cor_add}
          create_atoms  41  single 1.965 ${y_cor_add} ${z_cor_add}
          create_atoms  41  single 1.965 5.940 ${z_cor_add}
          create_atoms  41  single 1.965 5.940 8.090
Created 1 atoms
  using lattice units in orthogonal box = (0 0 0) to (34.0867 19.68 60)
  create_atoms CPU = 0.000 seconds

          ##<extension.velocity_set>
          #variable addatom_id equal count(all)
          #group id_new id ${addatom_id}

          #variable vx equal 200*(59.5116-${x_cor_add})
          #variable vy equal 200*(63.7752-${y_cor_add})
          #variable vz equal 200*(60.1321-${z_cor_add})
          #velocity id_new set ${vx} ${vy} ${vz}

          #if "${index} == 1" then "group newly_add_atom id ${addatom_id}" else "group newly_add_atom union newly_add_atom id_new"

          #group id_new delete
          #variable vx delete
          #variable vy delete
          #variable vz delete
          ##<extension.velocity_set.end>

          print ""

          print "        #3.2.if.cond1.loop> : add the ${index}th atom"
        #3.2.if.cond1.loop> : add the 7th atom
          print "        #3.2.if.cond1.loop>: ele_idx: ${ele_idx}     cordinates: ${x_cor_add} ${y_cor_add} ${z_cor_add}"
        #3.2.if.cond1.loop>: ele_idx: 41     cordinates: 1.965 5.940 8.090
          print ""


          variable  ele_idx delete

          variable  x_cor_add delete
          variable  y_cor_add delete
          variable  z_cor_add delete

          next    index
        jump SELF loop_4_adatom
        #<3.2.if.cond1.loop.end>

      jump SELF 3.2.if.end
      #<3.2.if.cond_else.end>
    #<3.2.if.end>

    #<3.2.relax>
    print    ""

    print    "    #3.2.relax> : doing structrual optimization :  minimize 1.0e-6 1.0e-8 100 10000"
    #3.2.relax> : doing structrual optimization :  minimize 1.0e-6 1.0e-8 100 10000
    print    ""


    run 0
Generated 0 of 1596 mixed pair_coeff terms from geometric mixing rule
Per MPI rank memory allocation (min/avg/max) = 7.024 | 7.024 | 7.024 Mbytes
   Step          Temp          E_pair         E_mol          TotEng         Press     
         0   297.96117     -8354.0447      0             -8314.3747      1659.5839    
Loop time of 2.525e-06 on 1 procs for 0 steps with 1031 atoms

39.6% CPU use with 1 MPI tasks x 1 OpenMP threads

MPI task timing breakdown:
Section |  min time  |  avg time  |  max time  |%varavg| %total
---------------------------------------------------------------
Pair    | 0          | 0          | 0          |   0.0 |  0.00
Neigh   | 0          | 0          | 0          |   0.0 |  0.00
Comm    | 0          | 0          | 0          |   0.0 |  0.00
Output  | 0          | 0          | 0          |   0.0 |  0.00
Modify  | 0          | 0          | 0          |   0.0 |  0.00
Other   |            | 2.525e-06  |            |       |100.00

Nlocal:           1031 ave        1031 max        1031 min
Histogram: 1 0 0 0 0 0 0 0 0 0
Nghost:           2651 ave        2651 max        2651 min
Histogram: 1 0 0 0 0 0 0 0 0 0
Neighs:              0 ave           0 max           0 min
Histogram: 1 0 0 0 0 0 0 0 0 0
FullNghs:       413068 ave      413068 max      413068 min
Histogram: 1 0 0 0 0 0 0 0 0 0

Total # of neighbors = 413068
Ave neighs/atom = 400.64791
Neighbor list builds = 0
Dangerous builds not checked
    minimize 1.0e-6 1.0e-8 100 10000
Switching to 'neigh_modify every 1 delay 0 check yes' setting during minimization
Generated 0 of 1596 mixed pair_coeff terms from geometric mixing rule
Per MPI rank memory allocation (min/avg/max) = 8.649 | 8.649 | 8.649 Mbytes
   Step          Temp          E_pair         E_mol          TotEng         Press     
         0   297.96117     -8354.0447      0             -8314.3747      1659.5839    
        10   297.96117     -8400.1391      0             -8360.4692      3261.2938    
        20   297.96117     -8407.8006      0             -8368.1307      2476.9678    
        30   297.96117     -8415.7182      0             -8376.0482      1186.2276    
        40   297.96117     -8425.3167      0             -8385.6468      180.50453    
        50   297.96117     -8429.9354      0             -8390.2655      218.1233     
        60   297.96117     -8436.3704      0             -8396.7005      502.44274    
        70   297.96117     -8440.2451      0             -8400.5752      426.86555    
        80   297.96117     -8442.0818      0             -8402.4118      527.20077    
        90   297.96117     -8444.0833      0             -8404.4133      830.85915    
       100   297.96117     -8444.8281      0             -8405.1581      1121.2474    
Loop time of 16.1584 on 1 procs for 100 steps with 1031 atoms

51.8% CPU use with 1 MPI tasks x 1 OpenMP threads

Minimization stats:
  Stopping criterion = max iterations
  Energy initial, next-to-last, final = 
     -8354.04468585848  -8444.77298930254  -8444.82805499555
  Force two-norm initial, final = 80.679147 2.8350663
  Force max component initial, final = 47.026581 1.4006688
  Final line search alpha, max atom move = 0.048339985 0.06770831
  Iterations, force evaluations = 100 168

MPI task timing breakdown:
Section |  min time  |  avg time  |  max time  |%varavg| %total
---------------------------------------------------------------
Pair    | 16.109     | 16.109     | 16.109     |   0.0 | 99.69
Neigh   | 0.03777    | 0.03777    | 0.03777    |   0.0 |  0.23
Comm    | 0.0030465  | 0.0030465  | 0.0030465  |   0.0 |  0.02
Output  | 0.0031026  | 0.0031026  | 0.0031026  |   0.0 |  0.02
Modify  | 0          | 0          | 0          |   0.0 |  0.00
Other   |            | 0.005683   |            |       |  0.04

Nlocal:           1031 ave        1031 max        1031 min
Histogram: 1 0 0 0 0 0 0 0 0 0
Nghost:           2720 ave        2720 max        2720 min
Histogram: 1 0 0 0 0 0 0 0 0 0
Neighs:              0 ave           0 max           0 min
Histogram: 1 0 0 0 0 0 0 0 0 0
FullNghs:       423238 ave      423238 max      423238 min
Histogram: 1 0 0 0 0 0 0 0 0 0

Total # of neighbors = 423238
Ave neighs/atom = 410.51212
Neighbor list builds = 5
Dangerous builds not checked
    print    "    #3.2.relax.end>"
    #3.2.relax.end>
    #<3.2.relax.end>

    #<3.2.delete_variables>
    variable natm_to_add delete
    #<3.2.delete_variables.end>
  print "  3.2.end>"
  3.2.end>
  #<3.2.end>


  #<3.3> 减少原子的操作

  print    "  #3.3> operation of del----------------------"
  #3.3> operation of del----------------------
  print    ""

  print    "  #3.3> read natm_to_del from ${dir_delinfo}/natm_to_del.txt"
  #3.3> read natm_to_del from operation_center.del_info/natm_to_del.txt
    #<3.3.read_variable_natm_to_del> 从${dir_delinfo}/natm_to_del.txt中读取删除原子信息
    variable  natm_to_del file ${dir_delinfo}/natm_to_del.txt
    variable  natm_to_del file operation_center.del_info/natm_to_del.txt
    print "    #3.3.read_variable_natm_to_del> we will del ${natm_to_del} atoms into the system"
    #3.3.read_variable_natm_to_del> we will del 0 atoms into the system
    #<3.3.read_variable_natm_to_del.end>

    #<3.3.if>
    if "${natm_to_del} > 0" then "jump SELF 3.3.if.cond_1" else "jump SELF 3.3.if.cond_else"
jump SELF 3.3.if.cond_else

      #若不del原子,则跳过
      print  ""

      print  "[3.operation of del] : notice the atom del number is 0, jump the del progress"
[3.operation of del] : notice the atom del number is 0, jump the del progress

    label 3.3.if.end
    #<3.3.if.end>

    #<3.3.delete_variables>
      variable natm_to_del delete
    #<3.3.delete_variables.end>

  print    ""

  print    "  #3.3.end>"
  #3.3.end>
  print    ""

  #<3.3.end>

  #<3.4> run
#    region region_to_del_Na block 131 181 120 215 80 140 side out
#   group outside_Na region region_to_del_Na
#    delete_atoms group outside_Na compress yes

#  region region_to_del_Na delete
#  group outside_Na delete

  ##<mod>
  region          material_region block INF INF INF INF 5 34

  group           material type 7
927 atoms in group material
  group           doper subtract all material
104 atoms in group doper

  velocity        doper create 2000.0 4928459 rot yes dist gaussian
  fix             2 doper nvt temp 2000.0 1000.0 0.1

  velocity        material create 300.0 4928459 rot yes dist gaussian
  fix             1 material nvt temp 300.0 300.0 0.1
WARNING: Replacing a fix, but new group != old group (src/modify.cpp:873)

  #velocity        doper_in_region create 300.0 4928459 rot yes dist gaussian
  #fix             3 doper_in_region nvt temp 300.0 300.0 0.1

  run             ${run_time_at_each_loop}
  run             4000
Generated 0 of 1596 mixed pair_coeff terms from geometric mixing rule
Per MPI rank memory allocation (min/avg/max) = 7.025 | 7.025 | 7.025 Mbytes
   Step          Temp          E_pair         E_mol          TotEng         Press     
       100   469.70874     -8444.8281      0             -8382.292       1728.054     
       110   210.87031     -8409.7527      0             -8381.6779      2255.519     
       120   213.22354     -8409.7397      0             -8381.3515      551.39303    
       130   239.05419     -8412.4408      0             -8380.6136     -580.7599     
       140   230.19783     -8410.4526      0             -8379.8045     -1608.2212    
       150   264.97282     -8414.1107      0             -8378.8328     -1214.3743    
       160   250.25469     -8411.366       0             -8378.0476      83.643782    
       170   263.76636     -8412.4941      0             -8377.3768      252.38087    
       180   252.04427     -8410.0957      0             -8376.539      -324.67071    
       190   269.17405     -8411.611       0             -8375.7737     -511.19899    
       200   270.01085     -8410.8462      0             -8374.8975     -476.86777    
       210   277.32528     -8411.0759      0             -8374.1534     -348.8996     
       220   291.72037     -8411.7226      0             -8372.8836     -229.73736    
       230   296.07831     -8411.2593      0             -8371.84       -231.21012    
       240   295.72035     -8409.9156      0             -8370.544       127.11405    
       250   299.16066     -8409.3529      0             -8369.5233     -228.42457    
       260   316.11588     -8410.3729      0             -8368.2858     -659.53188    
       270   309.75793     -8408.3857      0             -8367.1452     -735.96837    
       280   312.20149     -8407.5246      0             -8365.9587     -533.24394    
       290   342.63284     -8410.2422      0             -8364.6248     -627.45815    
       300   319.8572      -8405.957       0             -8363.3718     -849.06649    
       310   357.59746     -8409.7456      0             -8362.1359     -980.82494    
       320   352.08287     -8407.5689      0             -8360.6933     -843.68568    
       330   369.02882     -8408.595       0             -8359.4633     -1792.1347    
       340   352.08021     -8404.9394      0             -8358.0641     -1933.3864    
       350   367.98282     -8405.6345      0             -8356.642      -754.1055     
       360   388.83959     -8407.3921      0             -8355.6228     -438.64415    
       370   379.31709     -8404.7148      0             -8354.2133     -658.02826    
       380   384.18277     -8404.087       0             -8352.9377     -998.64607    
       390   391.38856     -8403.8023      0             -8351.6937     -866.3651     
       400   385.20874     -8401.6043      0             -8350.3184     -539.12373    
       410   413.29066     -8404.3195      0             -8349.2948     -312.17298    
       420   403.00358     -8401.5532      0             -8347.8982     -441.16759    
       430   406.86746     -8400.8045      0             -8346.635      -350.47017    
       440   418.72889     -8401.357       0             -8345.6083     -362.04824    
       450   436.63178     -8402.6665      0             -8344.5343     -98.383801    
       460   433.35842     -8401.2467      0             -8343.5502      87.617815    
       470   442.09647     -8401.697       0             -8342.8371     -120.20886    
       480   418.76313     -8397.7282      0             -8341.9749     -166.13535    
       490   423.89765     -8397.6948      0             -8341.2579     -633.35045    
       500   443.37041     -8399.5226      0             -8340.4932     -546.71033    
       510   445.3037      -8398.9974      0             -8339.7106     -579.17229    
       520   455.88697     -8400.0722      0             -8339.3764     -1232.9301    
       530   430.48139     -8395.9033      0             -8338.5899     -1253.4098    
       540   450.89181     -8398.4295      0             -8338.3986     -1490.5133    
       550   452.67832     -8398.2458      0             -8337.9771     -966.85562    
       560   460.29325     -8398.8523      0             -8337.5698     -1530.9791    
       570   462.35952     -8398.8718      0             -8337.3142     -1860.2379    
       580   472.302       -8400.0538      0             -8337.1725     -2441.6621    
       590   462.84307     -8398.2809      0             -8336.6589     -2721.6642    
       600   475.3486      -8399.6793      0             -8336.3924     -2379.5316    
       610   460.70275     -8397.4232      0             -8336.0862     -2328.7797    
       620   468.08584     -8397.8377      0             -8335.5178     -2897.1268    
       630   498.28331     -8401.8137      0             -8335.4732     -3453.6066    
       640   474.45765     -8398.1946      0             -8335.0262     -3165.1413    
       650   461.25695     -8395.8404      0             -8334.4295     -3892.1979    
       660   489.11414     -8399.4555      0             -8334.3358     -4292.5512    
       670   498.43165     -8400.3195      0             -8333.9593     -3009.316     
       680   511.61578     -8401.8711      0             -8333.7556     -1792.0711    
       690   509.20569     -8401.6527      0             -8333.8581     -1603.2496    
       700   493.3447      -8399.3334      0             -8333.6505     -2752.3194    
       710   488.4742      -8398.7749      0             -8333.7405     -3481.3196    
       720   496.9583      -8399.8621      0             -8333.6981     -3528.8414    
       730   505.52621     -8401.3438      0             -8334.0391     -2087.307     
       740   480.06623     -8398.1205      0             -8334.2055     -1728.1705    
       750   479.22113     -8398.2408      0             -8334.4383     -2502.5576    
       760   464.0318      -8396.3129      0             -8334.5327     -2826.2084    
       770   495.52592     -8400.803       0             -8334.8297     -2825.9721    
       780   505.48144     -8402.5004      0             -8335.2016     -1297.1556    
       790   477.27995     -8398.7395      0             -8335.1954     -1600.7154    
       800   480.91307     -8399.2915      0             -8335.2637     -3047.4387    
       810   484.8257      -8400.1565      0             -8335.6078     -3200.358     
       820   474.47646     -8398.5861      0             -8335.4153     -1971.9584    
       830   519.99998     -8405.3029      0             -8336.0712     -1346.198     
       840   485.11348     -8400.9223      0             -8336.3353     -1799.2771    
       850   502.23605     -8403.4571      0             -8336.5905     -2886.2745    
       860   495.31878     -8402.8485      0             -8336.9028     -3727.2222    
       870   492.78286     -8402.8547      0             -8337.2466     -3505.9235    
       880   496.36715     -8403.4564      0             -8337.3711     -3809.6557    
       890   491.21896     -8403.391       0             -8337.9911     -3475.2979    
       900   500.23725     -8405.2901      0             -8338.6896     -3449.9156    
       910   495.66589     -8405.3404      0             -8339.3484     -3171.634     
       920   492.97689     -8405.4602      0             -8339.8262     -2592.7969    
       930   477.51702     -8403.9518      0             -8340.3761     -2555.7868    
       940   510.83439     -8408.7875      0             -8340.776      -2984.2406    
       950   473.47207     -8404.2321      0             -8341.195      -1349.3846    
       960   490.3923      -8407.3109      0             -8342.0211     -805.37375    
       970   495.233       -8408.7505      0             -8342.8162     -506.58156    
       980   455.83589     -8403.8069      0             -8343.1179     -1584.517     
       990   496.62431     -8410.0264      0             -8343.9068     -805.01777    
      1000   458.63666     -8405.3958      0             -8344.3338     -677.87205    
      1010   480.13182     -8408.9511      0             -8345.0274     -1368.7132    
      1020   469.99234     -8408.0526      0             -8345.4788     -1884.7074    
      1030   461.88929     -8407.287       0             -8345.792      -1743.5837    
      1040   463.06135     -8407.9622      0             -8346.3112     -416.23729    
      1050   458.50801     -8407.4163      0             -8346.3714     -911.43838    
      1060   478.92731     -8410.5115      0             -8346.7481     -1127.3381    
      1070   461.79058     -8408.4784      0             -8346.9966     -1727.973     
      1080   465.7034      -8409.191       0             -8347.1882     -2811.0966    
      1090   433.18505     -8404.1092      0             -8346.4359     -3573.5462    
      1100   430.42314     -8404.1943      0             -8346.8886     -3646.3731    
      1110   466.79257     -8410.09        0             -8347.9422     -2844.8484    
      1120   455.68873     -8407.9076      0             -8347.2382     -1869.8988    
      1130   431.50916     -8405.1219      0             -8347.6717     -2055.7348    
      1140   452.66889     -8408.5393      0             -8348.2719     -3014.6793    
      1150   437.79166     -8406.9566      0             -8348.6699     -2853.9307    
      1160   457.01598     -8409.8819      0             -8349.0357     -2739.1278    
      1170   465.01376     -8411.1633      0             -8349.2523     -2320.539     
      1180   430.38067     -8406.6531      0             -8349.3531     -1813.7032    
      1190   461.5527      -8411.2496      0             -8349.7994     -3098.4689    
      1200   442.90704     -8408.8773      0             -8349.9096     -3271.4161    
      1210   428.30451     -8407.1863      0             -8350.1627     -2393.7269    
      1220   455.04758     -8411.4015      0             -8350.8174     -2504.9806    
      1230   443.6331      -8409.6058      0             -8350.5414     -2120.7719    
      1240   447.04146     -8409.7273      0             -8350.2092     -1517.4839    
      1250   450.06762     -8410.0429      0             -8350.1218     -1885.9368    
      1260   466.01712     -8412.2519      0             -8350.2073     -2310.063     
      1270   446.11723     -8408.7152      0             -8349.3201     -3110.0648    
      1280   421.2966      -8405.0645      0             -8348.9739     -4218.5298    
      1290   470.74992     -8408.7443      0             -8346.0696     -4255.4999    
      1300   455.99898     -8406.8336      0             -8346.1229     -3914.5308    
      1310   446.52445     -8405.8808      0             -8346.4314     -3559.3644    
      1320   461.07091     -8408.6904      0             -8347.3044     -3943.2296    
      1330   439.04063     -8405.7655      0             -8347.3125     -3296.7168    
      1340   445.87966     -8407.4166      0             -8348.0531     -3414.3425    
      1350   447.26511     -8407.7954      0             -8348.2475     -3548.6969    
      1360   436.89129     -8406.795       0             -8348.6282     -3288.1532    
      1370   441.20437     -8407.9241      0             -8349.183      -3346.6984    
      1380   435.58627     -8407.6824      0             -8349.6893     -3290.3804    
      1390   436.28727     -8408.3551      0             -8350.2687     -2784.7163    
      1400   446.78709     -8410.6645      0             -8351.1802     -2626.0446    
      1410   413.9255      -8406.472       0             -8351.3628     -2467.6383    
      1420   412.65169     -8406.8133      0             -8351.8737     -3139.0125    
      1430   421.5721      -8408.1945      0             -8352.0672     -4501.1743    
      1440   418.7841      -8408.1796      0             -8352.4235     -4579.9135    
      1450   423.36724     -8409.0211      0             -8352.6548     -4531.8033    
      1460   417.25687     -8408.4056      0             -8352.8529     -3264.3759    
      1470   431.33928     -8410.3991      0             -8352.9715     -2349.2694    
      1480   443.78551     -8412.1796      0             -8353.0949     -2074.438     
      1490   422.25247     -8409.1943      0             -8352.9764     -2363.1635    
      1500   419.41213     -8408.7611      0             -8352.9214     -3766.8897    
      1510   422.95523     -8409.6644      0             -8353.353      -4539.566     
      1520   423.02573     -8408.9591      0             -8352.6383     -3774.7135    
      1530   434.83988     -8409.9893      0             -8352.0956     -4298.657     
      1540   420.38327     -8408.1566      0             -8352.1877     -4484.2957    
      1550   410.40293     -8406.7619      0             -8352.1217     -3765.7819    
      1560   435.7953      -8410.107       0             -8352.0861     -2993.3965    
      1570   433.36635     -8409.624       0             -8351.9265     -2816.9306    
      1580   428.39301     -8408.7513      0             -8351.7159     -2641.5653    
      1590   440.44427     -8410.3292      0             -8351.6893     -2733.4662    
      1600   416.70037     -8406.595       0             -8351.1163     -2531.7923    
      1610   434.41451     -8409.5737      0             -8351.7367     -2060.0667    
      1620   449.67929     -8410.7582      0             -8350.8888     -2007.9418    
      1630   437.51832     -8410.0507      0             -8351.8004     -2435.9069    
      1640   443.16559     -8411.3218      0             -8352.3196     -3580.0072    
      1650   416.86972     -8407.742       0             -8352.2408     -4228.5721    
      1660   425.07884     -8408.5872      0             -8351.9931     -3947.1175    
      1670   446.62079     -8411.9264      0             -8352.4642     -2988.5005    
      1680   444.9686      -8411.565       0             -8352.3228     -2830.2399    
      1690   449.16005     -8411.5859      0             -8351.7857     -4215.2788    
      1700   421.58327     -8407.4115      0             -8351.2828     -4631.2477    
      1710   482.10931     -8415.4643      0             -8351.2772     -3659.3334    
      1720   459.61687     -8412.5194      0             -8351.3269     -3082.8712    
      1730   456.34032     -8413.4705      0             -8352.7143     -2819.3505    
      1740   433.19036     -8411.016       0             -8353.342      -3225.3195    
      1750   442.3204      -8412.3977      0             -8353.5081     -3820.3408    
      1760   432.32763     -8411.9221      0             -8354.3629     -3230.1287    
      1770   439.32065     -8413.3022      0             -8354.812      -2707.4223    
      1780   445.07421     -8414.5244      0             -8355.2682     -2747.3826    
      1790   428.73589     -8412.2651      0             -8355.1841     -3968.0625    
      1800   423.52105     -8411.8962      0             -8355.5095     -4500.5334    
      1810   450.10791     -8416.1813      0             -8356.2549     -3986.7925    
      1820   427.15629     -8413.8804      0             -8357.0097     -3259.6427    
      1830   430.85205     -8415.3561      0             -8357.9933     -2891.518     
      1840   440.42118     -8417.2976      0             -8358.6608     -2636.8451    
      1850   407.02528     -8412.9926      0             -8358.8021     -1586.8167    
      1860   427.23337     -8416.2114      0             -8359.3305     -2408.1219    
      1870   427.20413     -8416.0414      0             -8359.1644     -3486.5719    
      1880   400.48752     -8412.7192      0             -8359.3991     -3938.7717    
      1890   412.92608     -8414.9985      0             -8360.0224     -4341.7468    
      1900   412.17481     -8415.4317      0             -8360.5556     -3678.0519    
      1910   423.06814     -8417.1004      0             -8360.774      -3794.2174    
      1920   426.48467     -8418.2262      0             -8361.4449     -4035.7613    
      1930   399.44039     -8414.6846      0             -8361.5039     -4586.4685    
      1940   394.88469     -8413.535       0             -8360.9609     -4975.9394    
      1950   428.10246     -8417.1094      0             -8360.1127     -4248.5819    
      1960   395.60443     -8413.2493      0             -8360.5793     -3346.136     
      1970   414.20953     -8416.343       0             -8361.196      -3430.2029    
      1980   422.47757     -8417.5919      0             -8361.3441     -3715.2504    
      1990   376.4941      -8411.228       0             -8361.1023     -3702.8829    
      2000   409.7858      -8416.3679      0             -8361.8098     -2758.8699    
      2010   415.5599      -8417.1653      0             -8361.8385     -2264.1003    
      2020   396.84158     -8414.7673      0             -8361.9326     -2394.3765    
      2030   417.31461     -8417.7292      0             -8362.1688     -2665.9104    
      2040   393.48777     -8414.2446      0             -8361.8564     -3285.9495    
      2050   394.13583     -8414.347       0             -8361.8725     -3982.5836    
      2060   404.82632     -8415.5162      0             -8361.6185     -3907.3199    
      2070   401.23925     -8414.2487      0             -8360.8285     -3402.5397    
      2080   405.62173     -8414.6734      0             -8360.6697     -3316.7456    
      2090   395.23449     -8413.1913      0             -8360.5705     -2796.2516    
      2100   416.89792     -8415.5912      0             -8360.0863     -2754.6703    
      2110   397.94852     -8412.3003      0             -8359.3183     -2531.04      
      2120   398.47428     -8412.0383      0             -8358.9862     -3274.0883    
      2130   418.66566     -8414.3289      0             -8358.5886     -3338.1568    
      2140   443.04359     -8417.2741      0             -8358.2882     -2602.734     
      2150   428.03416     -8414.6194      0             -8357.6318     -3105.7362    
      2160   414.81058     -8412.1681      0             -8356.9411     -4353.5582    
      2170   431.5009      -8414.0334      0             -8356.5842     -4622.4893    
      2180   434.0128      -8413.8622      0             -8356.0787     -4242.5846    
      2190   424.70902     -8412.5698      0             -8356.0249     -2316.8739    
      2200   459.67726     -8417.9811      0             -8356.7806     -1296.5911    
      2210   436.66493     -8414.5026      0             -8356.366      -2812.3149    
      2220   409.21242     -8410.4016      0             -8355.9199     -3831.9976    
      2230   428.04654     -8413.2511      0             -8356.2619     -3183.8151    
      2240   429.68059     -8413.7197      0             -8356.5129     -3263.4505    
      2250   431.5136      -8414.336       0             -8356.8852     -2884.4592    
      2260   437.30116     -8415.2733      0             -8357.052      -2741.9461    
      2270   425.80191     -8414.113       0             -8357.4226     -3511.2288    
      2280   413.42209     -8412.1562      0             -8357.114      -4073.1874    
      2290   412.64917     -8412.5797      0             -8357.6404     -4014.1594    
      2300   419.91407     -8414.2941      0             -8358.3876     -3496.047     
      2310   447.55261     -8418.1671      0             -8358.5808     -3661.0686    
      2320   401.7113      -8411.7621      0             -8358.279      -3684.9965    
      2330   433.78744     -8415.8513      0             -8358.0977     -3075.0354    
      2340   418.10524     -8413.9119      0             -8358.2462     -1859.1362    
      2350   436.63363     -8416.8609      0             -8358.7284     -1023.8841    
      2360   433.52853     -8416.3639      0             -8358.6448     -2004.7873    
      2370   419.76259     -8414.0344      0             -8358.1481     -2881.3516    
      2380   411.26019     -8412.9409      0             -8358.1866     -3964.5535    
      2390   407.63066     -8412.4269      0             -8358.1557     -3728.3324    
      2400   441.47892     -8417.0115      0             -8358.2339     -3104.062     
      2410   426.9707      -8415.5942      0             -8358.7482     -2869.1955    
      2420   447.96501     -8418.5119      0             -8358.8707     -3135.1935    
      2430   396.28903     -8411.5359      0             -8358.7748     -3965.4433    
      2440   435.31494     -8416.1139      0             -8358.1569     -3549.1201    
      2450   413.45755     -8413.5198      0             -8358.4729     -2762.2131    
      2460   408.51557     -8413.0161      0             -8358.6272     -1918.9096    
      2470   425.40726     -8415.3892      0             -8358.7514     -2625.5308    
      2480   419.38701     -8414.8102      0             -8358.9739     -2938.5198    
      2490   398.37266     -8411.968       0             -8358.9295     -2511.4993    
      2500   421.50607     -8415.1627      0             -8359.0442     -2833.876     
      2510   399.54463     -8411.9272      0             -8358.7327     -2851.8418    
      2520   410.4604      -8413.6736      0             -8359.0257     -3420.2463    
      2530   417.61231     -8415.1616      0             -8359.5615     -2946.3244    
      2540   412.77018     -8414.6196      0             -8359.6642     -2903.027     
      2550   445.79254     -8419.2639      0             -8359.912      -3296.0388    
      2560   402.14709     -8413.0359      0             -8359.4949     -3230.2917    
      2570   425.04468     -8416.1311      0             -8359.5415     -4403.5033    
      2580   419.12852     -8415.217       0             -8359.4151     -4572.9492    
      2590   412.5036      -8414.8211      0             -8359.9012     -4375.2635    
      2600   432.3687      -8417.31        0             -8359.7453     -3876.2563    
      2610   399.72837     -8412.725       0             -8359.506      -3186.4944    
      2620   433.21576     -8417.4825      0             -8359.8051     -3575.0461    
      2630   420.11485     -8415.6924      0             -8359.7592     -3636.1301    
      2640   399.88671     -8413.1799      0             -8359.9398     -3389.6515    
      2650   406.09367     -8414.3797      0             -8360.3132     -2830.9088    
      2660   410.49205     -8414.7087      0             -8360.0566     -2415.7772    
      2670   427.5767      -8417.5442      0             -8360.6175     -2227.9462    
      2680   405.75434     -8414.652       0             -8360.6307     -2624.4693    
      2690   411.68698     -8415.5044      0             -8360.6932     -3674.2839    
      2700   411.1179      -8415.2993      0             -8360.5639     -3446.9366    
      2710   393.74231     -8413.1832      0             -8360.7611     -2878.4269    
      2720   412.96059     -8416.5187      0             -8361.5379     -3769.0007    
      2730   401.41749     -8415.6289      0             -8362.185      -4451.4683    
      2740   405.65627     -8416.9416      0             -8362.9333     -4539.5053    
      2750   387.7549      -8414.8032      0             -8363.1783     -4285.6795    
      2760   403.93819     -8417.1905      0             -8363.411      -3317.461     
      2770   409.42841     -8417.6168      0             -8363.1063     -2754.1405    
      2780   402.74735     -8416.3542      0             -8362.7333     -2871.7473    
      2790   388.03055     -8414.2995      0             -8362.6379     -4002.5502    
      2800   398.08039     -8415.7641      0             -8362.7645     -4128.2164    
      2810   404.78584     -8417.1971      0             -8363.3048     -3554.1224    
      2820   389.13831     -8414.7932      0             -8362.9842     -2436.0267    
      2830   413.64443     -8418.6662      0             -8363.5944     -2459.0545    
      2840   416.34157     -8419.2804      0             -8363.8496     -2953.7394    
      2850   404.62279     -8417.723       0             -8363.8523     -3104.2325    
      2860   395.97372     -8416.1902      0             -8363.4711     -3843.8142    
      2870   394.09231     -8416.121       0             -8363.6524     -4893.5009    
      2880   398.93903     -8416.8428      0             -8363.7289     -4498.9869    
      2890   389.21256     -8415.5317      0             -8363.7128     -3673.9176    
      2900   406.9213      -8418.0572      0             -8363.8805     -3306.4729    
      2910   391.16842     -8415.8218      0             -8363.7424     -3529.8516    
      2920   391.40273     -8415.8078      0             -8363.6973     -3750.5404    
      2930   400.73256     -8417.4167      0             -8364.0639     -4160.7153    
      2940   397.77081     -8416.7333      0             -8363.7749     -3598.6752    
      2950   408.40416     -8418.4149      0             -8364.0408     -3062.304     
      2960   409.07908     -8418.4569      0             -8363.9929     -2388.4244    
      2970   402.89365     -8417.6429      0             -8364.0024     -2991.1786    
      2980   413.39377     -8419.0941      0             -8364.0557     -3936.5222    
      2990   404.87615     -8417.8246      0             -8363.9202     -4437.6374    
      3000   406.28398     -8417.6002      0             -8363.5084     -3878.1899    
      3010   412.39557     -8418.835       0             -8363.9295     -3182.4885    
      3020   406.34888     -8418.0797      0             -8363.9793     -2946.8907    
      3030   386.20111     -8415.7008      0             -8364.2828     -2625.0025    
      3040   409.49463     -8419.2094      0             -8364.6901     -3078.0192    
      3050   408.25665     -8419.1227      0             -8364.7683     -3105.9412    
      3060   400.49406     -8418.6944      0             -8365.3735     -3374.7631    
      3070   392.04447     -8417.8748      0             -8365.6788     -2714.6522    
      3080   396.69211     -8419.1875      0             -8366.3727     -2688.8702    
      3090   400.63655     -8419.9691      0             -8366.6292     -2336.5033    
      3100   398.95332     -8419.8627      0             -8366.7469     -1439.485     
      3110   399.7559      -8420.2504      0             -8367.0277     -1240.33      
      3120   396.47493     -8420.0409      0             -8367.255      -1737.257     
      3130   392.78581     -8419.345       0             -8367.0503     -3078.0337    
      3140   373.81423     -8417.1065      0             -8367.3377     -3882.5095    
      3150   407.30862     -8422.0815      0             -8367.8533     -3785.4448    
      3160   394.49776     -8420.3395      0             -8367.8168     -3486.4909    
      3170   377.88101     -8418.0898      0             -8367.7795     -3455.9281    
      3180   400.25809     -8421.3554      0             -8368.0659     -3692.4757    
      3190   372.16019     -8417.5225      0             -8367.9738     -4211.48      
      3200   396.73809     -8421.088       0             -8368.2671     -5071.4242    
      3210   367.62638     -8417.1336      0             -8368.1885     -4992.0135    
      3220   375.96468     -8418.3921      0             -8368.3369     -4693.1333    
      3230   380.45768     -8419.0593      0             -8368.4059     -4362.7494    
      3240   389.04873     -8420.3239      0             -8368.5267     -3552.2443    
      3250   392.21884     -8420.7259      0             -8368.5067     -3336.6306    
      3260   367.21755     -8417.0432      0             -8368.1526     -2512.1058    
      3270   384.24063     -8419.2687      0             -8368.1117     -2318.4335    
      3280   409.27225     -8422.6164      0             -8368.1267     -3082.8727    
      3290   378.05088     -8418.0823      0             -8367.7493     -2481.064     
      3300   372.85066     -8417.1472      0             -8367.5067     -2020.8961    
      3310   386.40256     -8418.8465      0             -8367.4016     -1348.5612    
      3320   394.56073     -8419.8726      0             -8367.3416     -1432.6152    
      3330   399.379       -8420.3965      0             -8367.224      -1175.2981    
      3340   385.72291     -8418.1671      0             -8366.8127     -1705.2905    
      3350   407.00458     -8421.1571      0             -8366.9693     -2999.0109    
      3360   393.82008     -8419.0725      0             -8366.6401     -2589.4581    
      3370   396.8914      -8419.3637      0             -8366.5224     -2258.5127    
      3380   378.70391     -8416.6371      0             -8366.2172     -3165.5705    
      3390   390.17767     -8417.7634      0             -8365.8159     -3659.7663    
      3400   410.16791     -8420.1669      0             -8365.558      -3531.6398    
      3410   403.48918     -8418.7401      0             -8365.0204     -2829.5044    
      3420   395.97        -8417.3514      0             -8364.6327     -2680.1116    
      3430   396.31932     -8417.1023      0             -8364.3372     -3469.6351    
      3440   405.60985     -8418.1674      0             -8364.1653     -3990.3377    
      3450   382.6608      -8414.6823      0             -8363.7356     -3830.9812    
      3460   389.08525     -8415.4478      0             -8363.6458     -3218.7881    
      3470   405.31975     -8417.525       0             -8363.5616     -2272.0551    
      3480   389.92832     -8415.3326      0             -8363.4184     -1408.9287    
      3490   416.54159     -8418.9941      0             -8363.5366     -1751.8144    
      3500   395.66439     -8416.0011      0             -8363.3232     -1832.7091    
      3510   397.96745     -8416.5444      0             -8363.5598     -1516.7638    
      3520   416.86983     -8419.0644      0             -8363.5632     -1498.9269    
      3530   391.60698     -8416.0005      0             -8363.8628     -1858.403     
      3540   388.62908     -8415.5273      0             -8363.786      -2324.4012    
      3550   402.831       -8417.4842      0             -8363.8521     -2615.5567    
      3560   387.14511     -8415.5366      0             -8363.9929     -1873.0218    
      3570   382.1781      -8414.6945      0             -8363.8121     -2009.8025    
      3580   389.61369     -8415.9047      0             -8364.0323     -3139.2453    
      3590   389.04659     -8415.7376      0             -8363.9407     -4011.5003    
      3600   388.44097     -8415.6852      0             -8363.9689     -3917.2012    
      3610   377.24185     -8414.3129      0             -8364.0877     -3438.3663    
      3620   381.9242      -8415.1384      0             -8364.2898     -2900.0294    
      3630   380.27602     -8415.346       0             -8364.7169     -2015.7009    
      3640   392.84903     -8417.2246      0             -8364.9215     -1914.9677    
      3650   387.21648     -8416.4145      0             -8364.8613     -1299.7985    
      3660   380.92821     -8415.7314      0             -8365.0154     -2198.6949    
      3670   379.05176     -8415.9352      0             -8365.469      -3420.2452    
      3680   360.66938     -8413.3158      0             -8365.2971     -2745.4397    
      3690   394.33776     -8418.268       0             -8365.7667     -2307.7327    
      3700   407.24662     -8420.0118      0             -8365.7918     -3037.0884    
      3710   383.90896     -8416.9695      0             -8365.8567     -3127.3934    
      3720   372.57237     -8415.6781      0             -8366.0746     -3071.9975    
      3730   383.53346     -8417.1976      0             -8366.1347     -2594.7065    
      3740   390.76794     -8418.5797      0             -8366.5537     -1808.2453    
      3750   407.17237     -8421.0792      0             -8366.8691     -1922.7513    
      3760   370.57954     -8416.182       0             -8366.8438     -1713.4354    
      3770   385.67804     -8418.4556      0             -8367.1072     -1948.0873    
      3780   388.20544     -8419.0779      0             -8367.3931     -1503.9075    
      3790   372.09867     -8416.7411      0             -8367.2007     -1166.8829    
      3800   387.22674     -8418.7266      0             -8367.172      -1083.4563    
      3810   391.49906     -8419.3452      0             -8367.2218     -1829.6406    
      3820   386.49457     -8419.1583      0             -8367.7012     -2617.9038    
      3830   373.45672     -8417.2238      0             -8367.5026     -3164.071     
      3840   370.42115     -8416.5366      0             -8367.2195     -3398.2277    
      3850   382.58093     -8417.2936      0             -8366.3575     -3502.2763    
      3860   381.14296     -8417.2009      0             -8366.4563     -3433.9246    
      3870   381.1943      -8417.1201      0             -8366.3687     -2734.3607    
      3880   389.43476     -8418.8913      0             -8367.0427     -2633.9114    
      3890   357.43271     -8415.1176      0             -8367.5298     -2554.3856    
      3900   365.30476     -8415.5035      0             -8366.8676     -2407.2427    
      3910   376.33862     -8418.1653      0             -8368.0604     -2259.4841    
      3920   381.84536     -8419.1326      0             -8368.2945     -2413.0464    
      3930   352.62294     -8414.8055      0             -8367.8581     -2203.1831    
      3940   370.48688     -8418.437       0             -8369.1111     -1937.1936    
      3950   368.98464     -8419.1511      0             -8370.0252     -1911.1916    
      3960   374.97081     -8420.0909      0             -8370.1681     -2100.612     
      3970   365.69152     -8419.433       0             -8370.7456     -2385.714     
      3980   337.86827     -8415.2745      0             -8370.2914     -3099.8639    
      3990   362.38258     -8419.7354      0             -8371.4886     -2507.8317    
      4000   371.47469     -8420.9509      0             -8371.4935     -2648.1326    
      4010   366.0392      -8419.8167      0             -8371.083      -2631.2702    
      4020   350.40628     -8416.9516      0             -8370.2992     -2854.8267    
      4030   354.3935      -8417.8196      0             -8370.6364     -3465.187     
      4040   378.35621     -8421.4928      0             -8371.1192     -3177.3306    
      4050   371.90369     -8420.9481      0             -8371.4336     -3336.2408    
      4060   354.99551     -8418.6441      0             -8371.3807     -3147.0312    
      4070   346.24756     -8417.386       0             -8371.2873     -3267.991     
      4080   363.09518     -8420.4412      0             -8372.0994     -3367.3674    
      4090   364.63682     -8420.8918      0             -8372.3448     -3139.1376    
      4100   362.35961     -8420.6231      0             -8372.3793     -3926.3672    
Loop time of 387.298 on 1 procs for 4000 steps with 1031 atoms

Performance: 0.892 ns/day, 26.896 hours/ns, 10.328 timesteps/s, 10.648 katom-step/s
52.0% CPU use with 1 MPI tasks x 1 OpenMP threads

MPI task timing breakdown:
Section |  min time  |  avg time  |  max time  |%varavg| %total
---------------------------------------------------------------
Pair    | 384.09     | 384.09     | 384.09     |   0.0 | 99.17
Neigh   | 2.8076     | 2.8076     | 2.8076     |   0.0 |  0.72
Comm    | 0.093091   | 0.093091   | 0.093091   |   0.0 |  0.02
Output  | 0.12197    | 0.12197    | 0.12197    |   0.0 |  0.03
Modify  | 0.16441    | 0.16441    | 0.16441    |   0.0 |  0.04
Other   |            | 0.02186    |            |       |  0.01

Nlocal:           1031 ave        1031 max        1031 min
Histogram: 1 0 0 0 0 0 0 0 0 0
Nghost:           3004 ave        3004 max        3004 min
Histogram: 1 0 0 0 0 0 0 0 0 0
Neighs:              0 ave           0 max           0 min
Histogram: 1 0 0 0 0 0 0 0 0 0
FullNghs:       368174 ave      368174 max      368174 min
Histogram: 1 0 0 0 0 0 0 0 0 0

Total # of neighbors = 368174
Ave neighs/atom = 357.10378
Neighbor list builds = 400
Dangerous builds not checked


  #delete_atoms group doper_not_in_region compress yes

  unfix           1
  unfix           2
  #if              "${a}>1" then   #                "unfix           3"

  group           material delete
  group           doper delete
  #group           atoms_in_region delete
  #group           doper_in_region delete
  #group           doper_not_in_region delete

  region          material_region delete

  ##<mod>

  compute         $a all temp
  compute         1 all temp
  #<3.4.end>

next        a
jump SELF loopa
variable    a loop ${mainloop_time}
variable    a loop 20
  print  "#3.main.loop> time ${a}"
#3.main.loop> time 2
  print  "writing restart.equil"
writing restart.equil

  write_restart restart.equil
System init for write_restart ...
Generated 0 of 1596 mixed pair_coeff terms from geometric mixing rule

  #<3.1> 判断要增删哪些原子
  print    "  #3.1> judge which atoms to be add or del"  #${a} 是要增加的原子de loop数
  #3.1> judge which atoms to be add or del
  print    ""

  print    "  #3.1> ./scripts/adddel_conditions_2_adddel_files.py ${outfilename} "
  #3.1> ./scripts/adddel_conditions_2_adddel_files.py ann.lammpstrj 
    #<3.1.atom_transform> run ./scripts/atom_transform.sh ${outfilename}
    shell    ./scripts/adddel_conditions_2_adddel_files.py
    #shell   ./scripts/atom_transform.sh ${outfilename}  #atom_transform will create natm_to_add.txt and natm_to_del.txt
  print    ""

  print    "  #3.1.end>"
  #3.1.end>
  #<3.1.end>


  #<3.2> 增加原子的操作
  print    "  #3.2> add atoms"
  #3.2> add atoms
  print    ""

  print    "  #3.2> read natm_to_add from ${dir_addinfo}/natm_to_add.txt"
  #3.2> read natm_to_add from operation_center.add_info/natm_to_add.txt
  variable  natm_to_add file ./${dir_addinfo}/natm_to_add.txt
  variable  natm_to_add file ./operation_center.add_info/natm_to_add.txt
  print "  #3.2> : we will add ${natm_to_add} atoms into the system"
  #3.2> : we will add 7 atoms into the system

    #<3.2.if> 判断是否要增加原子
    if "${natm_to_add} > 0" then "jump SELF 3.2.if.cond_1" else "jump SELF 3.2.if.cond_else"
jump SELF 3.2.if.cond_1

        print  ""

        print  "      #3.2.if.cond1> : add these atoms"
      #3.2.if.cond1> : add these atoms
        print  ""


        #<3.2.if.cond1.loop> 增加原子loop
        #以下执行增加原子的操作.将所需增加的原子及其坐标放在${dir_addinfo}/eleidx_to_add_${index}.txt ${dir_addinfo}/[x,y,z]_to_add_${index}.txt
        #以下通过loop增加原子

        ##
        #variable   natm equal
        ##

        label    loop_4_adatom
          variable  index loop ${natm_to_add}
          variable  index loop 7

          variable  ele_idx file ${dir_addinfo}/eleidx_to_add_${index}.txt
          variable  ele_idx file operation_center.add_info/eleidx_to_add_${index}.txt
          variable  ele_idx file operation_center.add_info/eleidx_to_add_1.txt

          variable  x_cor_add file ${dir_addinfo}/x_to_add_${index}.txt
          variable  x_cor_add file operation_center.add_info/x_to_add_${index}.txt
          variable  x_cor_add file operation_center.add_info/x_to_add_1.txt
          variable  y_cor_add file ${dir_addinfo}/y_to_add_${index}.txt
          variable  y_cor_add file operation_center.add_info/y_to_add_${index}.txt
          variable  y_cor_add file operation_center.add_info/y_to_add_1.txt
          variable  z_cor_add file ${dir_addinfo}/z_to_add_${index}.txt
          variable  z_cor_add file operation_center.add_info/z_to_add_${index}.txt
          variable  z_cor_add file operation_center.add_info/z_to_add_1.txt

          create_atoms  ${ele_idx}  single ${x_cor_add} ${y_cor_add} ${z_cor_add}
          create_atoms  33  single ${x_cor_add} ${y_cor_add} ${z_cor_add}
          create_atoms  33  single 29.937 ${y_cor_add} ${z_cor_add}
          create_atoms  33  single 29.937 13.675 ${z_cor_add}
          create_atoms  33  single 29.937 13.675 34.837
Created 1 atoms
  using lattice units in orthogonal box = (0 0 0) to (34.0867 19.68 60)
  create_atoms CPU = 0.000 seconds

          ##<extension.velocity_set>
          #variable addatom_id equal count(all)
          #group id_new id ${addatom_id}

          #variable vx equal 200*(59.5116-${x_cor_add})
          #variable vy equal 200*(63.7752-${y_cor_add})
          #variable vz equal 200*(60.1321-${z_cor_add})
          #velocity id_new set ${vx} ${vy} ${vz}

          #if "${index} == 1" then "group newly_add_atom id ${addatom_id}" else "group newly_add_atom union newly_add_atom id_new"

          #group id_new delete
          #variable vx delete
          #variable vy delete
          #variable vz delete
          ##<extension.velocity_set.end>

          print ""

          print "        #3.2.if.cond1.loop> : add the ${index}th atom"
        #3.2.if.cond1.loop> : add the 1th atom
          print "        #3.2.if.cond1.loop>: ele_idx: ${ele_idx}     cordinates: ${x_cor_add} ${y_cor_add} ${z_cor_add}"
        #3.2.if.cond1.loop>: ele_idx: 33     cordinates: 29.937 13.675 34.837
          print ""


          variable  ele_idx delete

          variable  x_cor_add delete
          variable  y_cor_add delete
          variable  z_cor_add delete

          next    index
        jump SELF loop_4_adatom
          variable  index loop ${natm_to_add}
          variable  index loop 7

          variable  ele_idx file ${dir_addinfo}/eleidx_to_add_${index}.txt
          variable  ele_idx file operation_center.add_info/eleidx_to_add_${index}.txt
          variable  ele_idx file operation_center.add_info/eleidx_to_add_2.txt

          variable  x_cor_add file ${dir_addinfo}/x_to_add_${index}.txt
          variable  x_cor_add file operation_center.add_info/x_to_add_${index}.txt
          variable  x_cor_add file operation_center.add_info/x_to_add_2.txt
          variable  y_cor_add file ${dir_addinfo}/y_to_add_${index}.txt
          variable  y_cor_add file operation_center.add_info/y_to_add_${index}.txt
          variable  y_cor_add file operation_center.add_info/y_to_add_2.txt
          variable  z_cor_add file ${dir_addinfo}/z_to_add_${index}.txt
          variable  z_cor_add file operation_center.add_info/z_to_add_${index}.txt
          variable  z_cor_add file operation_center.add_info/z_to_add_2.txt

          create_atoms  ${ele_idx}  single ${x_cor_add} ${y_cor_add} ${z_cor_add}
          create_atoms  5  single ${x_cor_add} ${y_cor_add} ${z_cor_add}
          create_atoms  5  single 5.893 ${y_cor_add} ${z_cor_add}
          create_atoms  5  single 5.893 11.420 ${z_cor_add}
          create_atoms  5  single 5.893 11.420 40.740
Created 1 atoms
  using lattice units in orthogonal box = (0 0 0) to (34.0867 19.68 60)
  create_atoms CPU = 0.000 seconds

          ##<extension.velocity_set>
          #variable addatom_id equal count(all)
          #group id_new id ${addatom_id}

          #variable vx equal 200*(59.5116-${x_cor_add})
          #variable vy equal 200*(63.7752-${y_cor_add})
          #variable vz equal 200*(60.1321-${z_cor_add})
          #velocity id_new set ${vx} ${vy} ${vz}

          #if "${index} == 1" then "group newly_add_atom id ${addatom_id}" else "group newly_add_atom union newly_add_atom id_new"

          #group id_new delete
          #variable vx delete
          #variable vy delete
          #variable vz delete
          ##<extension.velocity_set.end>

          print ""

          print "        #3.2.if.cond1.loop> : add the ${index}th atom"
        #3.2.if.cond1.loop> : add the 2th atom
          print "        #3.2.if.cond1.loop>: ele_idx: ${ele_idx}     cordinates: ${x_cor_add} ${y_cor_add} ${z_cor_add}"
        #3.2.if.cond1.loop>: ele_idx: 5     cordinates: 5.893 11.420 40.740
          print ""


          variable  ele_idx delete

          variable  x_cor_add delete
          variable  y_cor_add delete
          variable  z_cor_add delete

          next    index
        jump SELF loop_4_adatom
          variable  index loop ${natm_to_add}
          variable  index loop 7

          variable  ele_idx file ${dir_addinfo}/eleidx_to_add_${index}.txt
          variable  ele_idx file operation_center.add_info/eleidx_to_add_${index}.txt
          variable  ele_idx file operation_center.add_info/eleidx_to_add_3.txt

          variable  x_cor_add file ${dir_addinfo}/x_to_add_${index}.txt
          variable  x_cor_add file operation_center.add_info/x_to_add_${index}.txt
          variable  x_cor_add file operation_center.add_info/x_to_add_3.txt
          variable  y_cor_add file ${dir_addinfo}/y_to_add_${index}.txt
          variable  y_cor_add file operation_center.add_info/y_to_add_${index}.txt
          variable  y_cor_add file operation_center.add_info/y_to_add_3.txt
[...]
     79010   529.61497     -8720.9611      0             -8641.3443     -1005.9873    
     79020   517.31897     -8719.2997      0             -8641.5314     -904.47932    
     79030   516.74662     -8718.9347      0             -8641.2524     -1320.8966    
     79040   505.27639     -8716.9593      0             -8641.0014     -1862.3698    
     79050   515.55118     -8718.4364      0             -8640.9338     -1662.7502    
     79060   517.26456     -8718.3707      0             -8640.6106     -1749.6301    
     79070   526.59813     -8719.7977      0             -8640.6344     -981.44165    
     79080   524.85212     -8719.6219      0             -8640.7211     -1858.0808    
     79090   513.82922     -8717.7077      0             -8640.464      -2238.3506    
     79100   528.91969     -8719.7272      0             -8640.215      -2344.7693    
     79110   536.47597     -8720.6846      0             -8640.0364     -2137.6019    
     79120   520.82982     -8717.8155      0             -8639.5194     -1728.314     
     79130   523.74542     -8718.4651      0             -8639.7307     -2310.9336    
     79140   529.92439     -8719.0642      0             -8639.4009     -1994.9935    
     79150   540.90267     -8720.7106      0             -8639.397      -2488.0964    
     79160   521.9123      -8717.5238      0             -8639.065      -2135.0183    
     79170   513.96523     -8715.9944      0             -8638.7303     -3680.8736    
     79180   526.55191     -8717.8883      0             -8638.732      -3128.7672    
     79190   540.42192     -8719.7124      0             -8638.471      -2638.0954    
     79200   552.79792     -8721.6836      0             -8638.5818     -1520.907     
     79210   555.62055     -8722.1988      0             -8638.6726     -1797.602     
     79220   539.88703     -8719.6018      0             -8638.4408     -2248.5901    
     79230   544.44514     -8720.0945      0             -8638.2483     -2091.7099    
     79240   564.31902     -8722.8655      0             -8638.0316     -1868.7498    
     79250   545.31344     -8719.8443      0             -8637.8676     -1044.8111    
     79260   552.8778      -8720.7801      0             -8637.6662     -1007.2334    
     79270   537.46169     -8717.8853      0             -8637.0889     -1281.7938    
     79280   564.1862      -8722.2928      0             -8637.4789     -1688.7204    
     79290   550.87245     -8720.0891      0             -8637.2767     -1614.7977    
     79300   563.07936     -8721.6536      0             -8637.0062     -2446.8232    
     79310   572.68743     -8723.0422      0             -8636.9503     -2009.1017    
     79320   548.19575     -8719.167       0             -8636.757      -2435.4801    
     79330   556.38043     -8721.0251      0             -8637.3846     -2329.2178    
     79340   568.35582     -8723.5545      0             -8638.1138     -1962.7191    
     79350   554.44933     -8722.0311      0             -8638.6809     -1064.9043    
     79360   576.60797     -8725.9607      0             -8639.2795     -178.96328    
     79370   561.6847      -8724.5701      0             -8640.1323     -1435.2405    
     79380   533.95691     -8720.8783      0             -8640.6088     -1177.5472    
     79390   544.97704     -8723.3593      0             -8641.4331     -1544.0439    
     79400   545.66148     -8724.0055      0             -8641.9764     -824.94356    
     79410   549.34334     -8725.0192      0             -8642.4367     -196.49675    
     79420   552.22034     -8726.1831      0             -8643.168       194.20954    
     79430   524.76189     -8722.6164      0             -8643.7292     -295.00073    
     79440   508.62367     -8722.3513      0             -8645.8901     -1482.1889    
     79450   567.95041     -8721.0432      0             -8635.6635     -2748.3874    
     79460   569.34397     -8722.4221      0             -8636.8329     -2721.3921    
     79470   570.48288     -8723.6631      0             -8637.9026     -1980.4322    
     79480   554.26097     -8722.2171      0             -8638.8953     -1275.1905    
     79490   555.87607     -8723.4038      0             -8639.8392     -1667.1545    
     79500   559.28321     -8725.139       0             -8641.0622     -538.36101    
     79510   534.34791     -8722.3592      0             -8642.031      -609.24945    
     79520   540.40374     -8724.7655      0             -8643.5269     -362.21577    
     79530   537.24957     -8725.6053      0             -8644.8408     -1090.5632    
     79540   519.77097     -8724.1919      0             -8646.0549     -889.61477    
     79550   519.63518     -8725.0979      0             -8646.9814     -1049.6086    
     79560   538.20331     -8729.445       0             -8648.5371     -493.19224    
     79570   514.01783     -8727.0056      0             -8649.7335     -949.4893     
     79580   506.67244     -8726.6965      0             -8650.5287     -2294.6164    
     79590   522.55496     -8729.957       0             -8651.4015     -2227.9343    
     79600   524.89595     -8730.796       0             -8651.8886     -2305.2935    
     79610   526.37505     -8729.9819      0             -8650.8522     -2362.1214    
     79620   507.02434     -8727.8992      0             -8651.6785     -2900.3181    
     79630   554.06839     -8728.7762      0             -8645.4834     -1659.0365    
     79640   521.48387     -8726.0982      0             -8647.7037     -868.87294    
     79650   501.55018     -8723.851       0             -8648.4532     -1028.8785    
     79660   514.70777     -8726.3748      0             -8648.999      -673.27256    
     79670   474.8316      -8721.6219      0             -8650.2407      38.875441    
     79680   472.24954     -8722.1363      0             -8651.1432      183.51626    
     79690   458.72934     -8720.2821      0             -8651.3215      316.81249    
     79700   470.12594     -8722.389       0             -8651.7152     -427.16746    
     79710   449.37906     -8719.2765      0             -8651.7216      241.77891    
     79720   461.54112     -8721.6742      0             -8652.2909      65.878179    
     79730   453.67366     -8720.5005      0             -8652.2999     -145.47701    
     79740   446.99845     -8719.5463      0             -8652.3492     -618.05531    
     79750   457.80359     -8721.1199      0             -8652.2985     -1476.8281    
     79760   463.15429     -8722.264       0             -8652.6383     -697.55047    
     79770   462.55909     -8722.1691      0             -8652.6328     -1997.9085    
     79780   459.65166     -8721.8158      0             -8652.7166     -2248.3679    
     79790   474.30288     -8724.0456      0             -8652.7439     -2207.8861    
     79800   465.07724     -8722.8647      0             -8652.9498     -2976.0606    
     79810   471.60677     -8723.7829      0             -8652.8865     -2535.1602    
     79820   470.32783     -8723.7778      0             -8653.0737     -2518.9465    
     79830   463.1361      -8722.5599      0             -8652.9369     -1657.1659    
     79840   489.99785     -8726.8309      0             -8653.1698     -1310.1025    
     79850   466.0894      -8722.7816      0             -8652.7146     -1150.1455    
     79860   477.44216     -8724.2229      0             -8652.4492     -2208.8475    
     79870   468.85588     -8722.3565      0             -8651.8737     -1530.4153    
     79880   479.31504     -8724.4061      0             -8652.3509     -1806.1068    
     79890   488.32312     -8725.9119      0             -8652.5025     -1166.4515    
     79900   476.72907     -8723.8082      0             -8652.1417     -1858.5055    
     79910   464.7021      -8721.9313      0             -8652.0729     -1512.3126    
     79920   479.33912     -8724.015       0             -8651.9561     -923.38411    
     79930   479.45679     -8723.9491      0             -8651.8726     -383.72662    
     79940   472.60451     -8723.0279      0             -8651.9815      753.13638    
     79950   485.96752     -8724.8655      0             -8651.8102     -448.96918    
     79960   475.96995     -8723.1048      0             -8651.5525     -1036.5166    
     79970   471.93384     -8721.7526      0             -8650.807      -2315.1277    
     79980   493.38345     -8724.6878      0             -8650.5176     -2993.4094    
     79990   484.27779     -8722.8757      0             -8650.0744     -2797.9457    
     80000   492.02868     -8723.5084      0             -8649.542      -2130.1159    
     80010   490.79714     -8722.6443      0             -8648.863      -2589.4353    
     80020   505.22981     -8724.6426      0             -8648.6917     -3197.657     
     80030   487.46859     -8721.617       0             -8648.336      -2671.9872    
     80040   503.33369     -8723.9475      0             -8648.2816     -1130.8413    
     80050   495.4093      -8722.7859      0             -8648.3112     -1538.6991    
     80060   489.38012     -8721.5761      0             -8648.0078      476.15959    
     80070   492.89422     -8722.1744      0             -8648.0778     -303.24479    
     80080   498.26332     -8722.6077      0             -8647.704      -1315.0324    
     80090   472.49453     -8718.4827      0             -8647.4528     -558.09124    
     80100   482.277       -8719.5447      0             -8647.0442     -1202.9346    
     80110   502.39058     -8722.2679      0             -8646.7437     -773.33383    
     80120   511.66575     -8723.6161      0             -8646.6976     -1010.8284    
     80130   499.91485     -8721.9288      0             -8646.7768     -1320.8204    
     80140   498.54341     -8721.6948      0             -8646.749      -1299.5213    
     80150   495.36356     -8721.3161      0             -8646.8483     -2176.3156    
     80160   485.21986     -8719.7182      0             -8646.7753     -1524.6231    
     80170   507.69448     -8723.5007      0             -8647.1793     -1763.7287    
     80180   482.54214     -8719.3276      0             -8646.7872     -1106.9025    
     80190   510.58006     -8723.3072      0             -8646.5519     -1200.2708    
     80200   507.13149     -8722.9882      0             -8646.7514     -2110.1699    
     80210   517.26402     -8724.6433      0             -8646.8833     -1979.5932    
     80220   513.61193     -8723.9924      0             -8646.7813     -1834.7425    
     80230   500.52694     -8722.3317      0             -8647.0877     -1896.3392    
     80240   487.16405     -8720.7649      0             -8647.5297     -1454.6195    
     80250   506.71787     -8724.1829      0             -8648.0083     -1415.5537    
     80260   485.66259     -8720.8898      0             -8647.8803     -1963.5702    
     80270   492.14153     -8722.1405      0             -8648.1571     -1871.694     
     80280   474.11286     -8719.87        0             -8648.5968     -2093.5073    
     80290   488.10967     -8722.3188      0             -8648.9415     -2603.2209    
     80300   494.62053     -8723.8679      0             -8649.5118     -2418.502     
     80310   475.01774     -8720.9555      0             -8649.5463     -2383.8125    
     80320   489.33025     -8723.5835      0             -8650.0227     -1707.4637    
     80330   481.06554     -8722.2024      0             -8649.8841     -332.85392    
     80340   472.3847      -8721.1991      0             -8650.1857     -20.076505    
     80350   492.37669     -8724.804       0             -8650.7852     -756.33879    
     80360   477.20338     -8722.7016      0             -8650.9639     -910.6201     
     80370   456.31845     -8719.6618      0             -8651.0637     -1172.4703    
     80380   464.79171     -8721.281       0             -8651.4091     -1404.0692    
     80390   465.17383     -8721.3864      0             -8651.457      -1312.7349    
     80400   492.7402      -8725.779       0             -8651.7056     -360.7581     
     80410   484.2662      -8724.2008      0             -8651.4012      329.48642    
     80420   473.35032     -8722.913       0             -8651.7545      1402.3645    
     80430   472.59909     -8722.353       0             -8651.3074      649.5601     
     80440   453.69069     -8719.4648      0             -8651.2617      230.35879    
     80450   478.05149     -8723.4682      0             -8651.603      -729.97681    
     80460   484.0788      -8724.3964      0             -8651.625      -914.63674    
     80470   477.45383     -8723.0577      0             -8651.2823     -718.87816    
     80480   473.96119     -8723.033       0             -8651.7826     -693.16347    
     80490   457.19153     -8720.3506      0             -8651.6212     -783.92638    
     80500   470.04939     -8722.2201      0             -8651.5578     -1159.871     
     80510   467.71078     -8721.593       0             -8651.2823     -691.843      
     80520   464.42009     -8720.762       0             -8650.9459      50.737327    
     80530   471.3318      -8721.3854      0             -8650.5303     -482.78579    
     80540   480.42581     -8722.8243      0             -8650.6021     -1494.4175    
     80550   475.82772     -8721.9824      0             -8650.4514     -2158.6035    
     80560   488.16344     -8724.1895      0             -8650.8041     -2269.9398    
     80570   479.64723     -8722.601       0             -8650.4959     -1127.2332    
     80580   502.03875     -8726.2431      0             -8650.7719     -228.00601    
     80590   474.89015     -8721.7         0             -8650.31        147.7363     
     80600   474.35157     -8722.254       0             -8650.9449     -303.82829    
     80610   475.99047     -8722.6279      0             -8651.0725     -2086.126     
     80620   479.69091     -8723.5688      0             -8651.4571     -1775.3239    
     80630   489.5085      -8724.8275      0             -8651.2399     -1517.154     
     80640   488.66675     -8724.885       0             -8651.4239     -1922.888     
     80650   485.43236     -8725.092       0             -8652.1172     -1132.2214    
     80660   478.53349     -8725.4096      0             -8653.4719     -1775.8388    
     80670   469.64646     -8724.6644      0             -8654.0627     -2374.4394    
     80680   465.09891     -8723.9638      0             -8654.0457     -765.55895    
     80690   463.45209     -8723.5862      0             -8653.9156     -590.32793    
     80700   469.97717     -8725.1369      0             -8654.4854     -1292.158     
     80710   445.01582     -8721.8645      0             -8654.9655     -1991.2987    
     80720   474.32691     -8726.9086      0             -8655.6032     -2220.9552    
     80730   463.80241     -8725.7076      0             -8655.9844     -2408.9705    
     80740   447.03353     -8724.0876      0             -8656.8853     -2160.448     
     80750   436.53011     -8722.6996      0             -8657.0762     -2472.7113    
     80760   441.61017     -8722.929       0             -8656.542      -2256.5873    
     80770   447.35695     -8723.6949      0             -8656.4439     -1137.3445    
     80780   464.88372     -8727.327       0             -8657.4412     -1135.4195    
     80790   468.37328     -8728.7037      0             -8658.2933     -884.29625    
     80800   449.93915     -8724.2929      0             -8656.6538     -1547.5528    
     80810   463.41804     -8722.6877      0             -8653.0223     -1493.6034    
     80820   458.02079     -8722.5244      0             -8653.6703     -1785.6976    
     80830   465.71677     -8723.8985      0             -8653.8875     -627.87124    
     80840   448.93173     -8721.7894      0             -8654.3017     -953.86785    
     80850   465.07256     -8724.5152      0             -8654.601      -449.82102    
     80860   465.83259     -8725.0283      0             -8654.9999     -1997.5445    
     80870   453.79583     -8723.6663      0             -8655.4474     -1753.9951    
     80880   436.14169     -8721.58        0             -8656.015      -1276.2791    
     80890   443.37589     -8723.3567      0             -8656.7042     -1672.4247    
     80900   449.67234     -8725.1177      0             -8657.5187     -314.61044    
     80910   453.68048     -8726.2768      0             -8658.0752      637.89378    
     80920   442.90995     -8724.8194      0             -8658.2369      447.13386    
     80930   434.18047     -8723.6097      0             -8658.3396      856.81383    
     80940   431.93208     -8723.516       0             -8658.5839      473.9794     
     80950   441.56482     -8724.8288      0             -8658.4485     -376.87754    
     80960   447.25398     -8726.0971      0             -8658.8616     -1299.8935    
     80970   435.88224     -8724.1783      0             -8658.6523     -972.19136    
     80980   440.36621     -8724.84        0             -8658.6399     -2152.2184    
     80990   454.95081     -8727.1894      0             -8658.7968     -1763.5037    
     81000   458.34528     -8728.0747      0             -8659.1718     -2093.1653    
     81010   449.9594      -8726.721       0             -8659.0788     -2495.443     
     81020   441.90996     -8725.524       0             -8659.0919     -3415.0972    
     81030   445.30668     -8726.5945      0             -8659.6518     -3480.6599    
     81040   443.04115     -8726.2064      0             -8659.6043     -4001.2849    
     81050   467.07247     -8730.2036      0             -8659.9888     -2958.7319    
     81060   456.02532     -8728.4448      0             -8659.8908     -2317.4783    
     81070   470.44149     -8730.9414      0             -8660.2201     -2263.3843    
     81080   476.75582     -8732.1231      0             -8660.4526     -1991.6761    
     81084   471.39393     -8731.5329      0             -8660.6685     -2257.0355    
Loop time of 436.781 on 1 procs for 4000 steps with 1164 atoms

Performance: 0.791 ns/day, 30.332 hours/ns, 9.158 timesteps/s, 10.660 katom-step/s
52.1% CPU use with 1 MPI tasks x 1 OpenMP threads

MPI task timing breakdown:
Section |  min time  |  avg time  |  max time  |%varavg| %total
---------------------------------------------------------------
Pair    | 432.87     | 432.87     | 432.87     |   0.0 | 99.10
Neigh   | 3.3682     | 3.3682     | 3.3682     |   0.0 |  0.77
Comm    | 0.12583    | 0.12583    | 0.12583    |   0.0 |  0.03
Output  | 0.1374     | 0.1374     | 0.1374     |   0.0 |  0.03
Modify  | 0.25088    | 0.25088    | 0.25088    |   0.0 |  0.06
Other   |            | 0.0293     |            |       |  0.01

Nlocal:           1164 ave        1164 max        1164 min
Histogram: 1 0 0 0 0 0 0 0 0 0
Nghost:           3383 ave        3383 max        3383 min
Histogram: 1 0 0 0 0 0 0 0 0 0
Neighs:              0 ave           0 max           0 min
Histogram: 1 0 0 0 0 0 0 0 0 0
FullNghs:       410426 ave      410426 max      410426 min
Histogram: 1 0 0 0 0 0 0 0 0 0

Total # of neighbors = 410426
Ave neighs/atom = 352.59966
Neighbor list builds = 400
Dangerous builds not checked


  #delete_atoms group doper_not_in_region compress yes

  unfix           1
  unfix           2
  #if              "${a}>1" then   #                "unfix           3"

  group           material delete
  group           doper delete
  #group           atoms_in_region delete
  #group           doper_in_region delete
  #group           doper_not_in_region delete

  region          material_region delete

  ##<mod>

  compute         $a all temp
  compute         20 all temp
  #<3.4.end>

next        a
jump SELF loopa
#<3.loop(main).end>
#<3.end>
Total wall time: 2:24:06
